! S-parameter export from FEKO
!   Filename:      5cm_width_TX_coil_w_RX_SParameter1.s2p
!   Creation date: 2024-11-19 10:43:56
! 
# Hz S MA R  5.00000E+01
! 
!     FREQ          |S11|        <S11       |S21|        <S21       |S12|        <S12       |S22|        <S22
 6.7800000E+06  9.2019913E-01 -178.939  1.8485772E-01   93.867  1.8504784E-01   93.867  9.3666272E-01 -171.060
