! S-parameter export from FEKO
!   Filename:      6cm_width_TX_coil_w_RX_SParameter1.s2p
!   Creation date: 2024-11-19 11:00:27
! 
# Hz S MA R  5.00000E+01
! 
!     FREQ          |S11|        <S11       |S21|        <S21       |S12|        <S12       |S22|        <S22
 6.7800000E+06  9.2052887E-01  179.597  1.7754712E-01   93.152  1.7768778E-01   93.153  9.3872875E-01 -171.073
