! S-parameter export from FEKO
!   Filename:      8cm_width_TX_coil_w_RX_SParameter1.s2p
!   Creation date: 2024-11-19 13:47:18
! 
# Hz S MA R  5.00000E+01
! 
!     FREQ          |S11|        <S11       |S21|        <S21       |S12|        <S12       |S22|        <S22
 6.7800000E+06  9.2273820E-01 -179.389  1.5328905E-01   93.641  1.5336431E-01   93.642  9.4239909E-01 -171.084
